##File Type: Far field
##File Format: 5
##Source: dipole
##Date: 2019-03-14 10:59:10
** File exported by POSTFEKO version 2018-319328 (x64)

#Configuration Name: StandardConfiguration1
#Request Name: FarField1
#Frequency: 8.66000000E+08
#Coordinate System: Spherical
#No. of Theta Samples: 73
#No. of Phi Samples: 37
#Result Type: Gain
#No. of Header Lines: 1
                 "Theta"           "Phi"             "Re(Etheta)"      "Im(Etheta)"      "Re(Ephi)"        "Im(Ephi)"        "Gain(Theta)"     "Gain(Phi)"       "Gain(Total)"     
                  -1.80000000E+02    0.00000000E+00   -3.24614777E-17   -5.63547588E-17    0.00000000E+00    0.00000000E+00   -3.18308578E+02   -1.00000000E+03   -3.18308578E+02   
                  -1.75000000E+02    0.00000000E+00   -2.31537550E-02   -4.01862214E-02    0.00000000E+00    0.00000000E+00   -2.12451155E+01   -1.00000000E+03   -2.12451155E+01   
                  -1.70000000E+02    0.00000000E+00   -4.64371379E-02   -8.05390411E-02    0.00000000E+00    0.00000000E+00   -1.52049602E+01   -1.00000000E+03   -1.52049602E+01   
                  -1.65000000E+02    0.00000000E+00   -6.99620685E-02   -1.21197798E-01    0.00000000E+00    0.00000000E+00   -1.16526530E+01   -1.00000000E+03   -1.16526530E+01   
                  -1.60000000E+02    0.00000000E+00   -9.38056280E-02   -1.62248197E-01    0.00000000E+00    0.00000000E+00   -9.11554128E+00   -1.00000000E+03   -9.11554128E+00   
                  -1.55000000E+02    0.00000000E+00   -1.17994111E-01   -2.03697861E-01    0.00000000E+00    0.00000000E+00   -7.13527067E+00   -1.00000000E+03   -7.13527067E+00   
                  -1.50000000E+02    0.00000000E+00   -1.42489048E-01   -2.45455026E-01    0.00000000E+00    0.00000000E+00   -5.51085218E+00   -1.00000000E+03   -5.51085218E+00   
                  -1.45000000E+02    0.00000000E+00   -1.67176139E-01   -2.87311850E-01    0.00000000E+00    0.00000000E+00   -4.13811362E+00   -1.00000000E+03   -4.13811362E+00   
                  -1.40000000E+02    0.00000000E+00   -1.91858179E-01   -3.28933963E-01    0.00000000E+00    0.00000000E+00   -2.95768459E+00   -1.00000000E+03   -2.95768459E+00   
                  -1.35000000E+02    0.00000000E+00   -2.16253078E-01   -3.69857924E-01    0.00000000E+00    0.00000000E+00   -1.93379059E+00   -1.00000000E+03   -1.93379059E+00   
                  -1.30000000E+02    0.00000000E+00   -2.39997959E-01   -4.09498037E-01    0.00000000E+00    0.00000000E+00   -1.04420355E+00   -1.00000000E+03   -1.04420355E+00   
                  -1.25000000E+02    0.00000000E+00   -2.62659994E-01   -4.47163494E-01    0.00000000E+00    0.00000000E+00   -2.74935426E-01   -1.00000000E+03   -2.74935426E-01   
                  -1.20000000E+02    0.00000000E+00   -2.83754115E-01   -4.82086005E-01    0.00000000E+00    0.00000000E+00    3.82801554E-01   -1.00000000E+03    3.82801554E-01   
                  -1.15000000E+02    0.00000000E+00   -3.02767056E-01   -5.13457046E-01    0.00000000E+00    0.00000000E+00    9.34448102E-01   -1.00000000E+03    9.34448102E-01   
                  -1.10000000E+02    0.00000000E+00   -3.19186402E-01   -5.40472658E-01    0.00000000E+00    0.00000000E+00    1.38328154E+00   -1.00000000E+03    1.38328154E+00   
                  -1.05000000E+02    0.00000000E+00   -3.32532545E-01   -5.62382587E-01    0.00000000E+00    0.00000000E+00    1.73119624E+00   -1.00000000E+03    1.73119624E+00   
                  -1.00000000E+02    0.00000000E+00   -3.42390848E-01   -5.78539632E-01    0.00000000E+00    0.00000000E+00    1.97922630E+00   -1.00000000E+03    1.97922630E+00   
                  -9.50000000E+01    0.00000000E+00   -3.48441011E-01   -5.88444604E-01    0.00000000E+00    0.00000000E+00    2.12789352E+00   -1.00000000E+03    2.12789352E+00   
                  -9.00000000E+01    0.00000000E+00   -3.50480639E-01   -5.91782370E-01    0.00000000E+00    0.00000000E+00    2.17742903E+00   -1.00000000E+03    2.17742903E+00   
                  -8.50000000E+01    0.00000000E+00   -3.48440513E-01   -5.88445185E-01    0.00000000E+00    0.00000000E+00    2.12789665E+00   -1.00000000E+03    2.12789665E+00   
                  -8.00000000E+01    0.00000000E+00   -3.42389876E-01   -5.78540768E-01    0.00000000E+00    0.00000000E+00    1.97923254E+00   -1.00000000E+03    1.97923254E+00   
                  -7.50000000E+01    0.00000000E+00   -3.32531144E-01   -5.62384228E-01    0.00000000E+00    0.00000000E+00    1.73120554E+00   -1.00000000E+03    1.73120554E+00   
                  -7.00000000E+01    0.00000000E+00   -3.19184637E-01   -5.40474734E-01    0.00000000E+00    0.00000000E+00    1.38329385E+00   -1.00000000E+03    1.38329385E+00   
                  -6.50000000E+01    0.00000000E+00   -3.02765003E-01   -5.13459469E-01    0.00000000E+00    0.00000000E+00    9.34463333E-01   -1.00000000E+03    9.34463333E-01   
                  -6.00000000E+01    0.00000000E+00   -2.83751860E-01   -4.82088681E-01    0.00000000E+00    0.00000000E+00    3.82819604E-01   -1.00000000E+03    3.82819604E-01   
                  -5.50000000E+01    0.00000000E+00   -2.62657627E-01   -4.47166321E-01    0.00000000E+00    0.00000000E+00   -2.74914682E-01   -1.00000000E+03   -2.74914682E-01   
                  -5.00000000E+01    0.00000000E+00   -2.39995564E-01   -4.09500916E-01    0.00000000E+00    0.00000000E+00   -1.04418026E+00   -1.00000000E+03   -1.04418026E+00   
                  -4.50000000E+01    0.00000000E+00   -2.16250734E-01   -3.69860762E-01    0.00000000E+00    0.00000000E+00   -1.93376491E+00   -1.00000000E+03   -1.93376491E+00   
                  -4.00000000E+01    0.00000000E+00   -1.91855956E-01   -3.28936675E-01    0.00000000E+00    0.00000000E+00   -2.95765671E+00   -1.00000000E+03   -2.95765671E+00   
                  -3.50000000E+01    0.00000000E+00   -1.67174096E-01   -2.87314362E-01    0.00000000E+00    0.00000000E+00   -4.13808375E+00   -1.00000000E+03   -4.13808375E+00   
                  -3.00000000E+01    0.00000000E+00   -1.42487231E-01   -2.45457277E-01    0.00000000E+00    0.00000000E+00   -5.51082053E+00   -1.00000000E+03   -5.51082053E+00   
                  -2.50000000E+01    0.00000000E+00   -1.17992556E-01   -2.03699801E-01    0.00000000E+00    0.00000000E+00   -7.13523748E+00   -1.00000000E+03   -7.13523748E+00   
                  -2.00000000E+01    0.00000000E+00   -9.38043601E-02   -1.62249789E-01    0.00000000E+00    0.00000000E+00   -9.11550681E+00   -1.00000000E+03   -9.11550681E+00   
                  -1.50000000E+01    0.00000000E+00   -6.99611054E-02   -1.21199014E-01    0.00000000E+00    0.00000000E+00   -1.16526175E+01   -1.00000000E+03   -1.16526175E+01   
                  -1.00000000E+01    0.00000000E+00   -4.64364906E-02   -8.05398616E-02    0.00000000E+00    0.00000000E+00   -1.52049240E+01   -1.00000000E+03   -1.52049240E+01   
                  -5.00000000E+00    0.00000000E+00   -2.31534300E-02   -4.01866345E-02    0.00000000E+00    0.00000000E+00   -2.12450788E+01   -1.00000000E+03   -2.12450788E+01   
                   0.00000000E+00    0.00000000E+00    0.00000000E+00    0.00000000E+00    0.00000000E+00    0.00000000E+00   -1.00000000E+03   -1.00000000E+03   -1.00000000E+03   
                   5.00000000E+00    0.00000000E+00    2.31534227E-02    4.01866380E-02    0.00000000E+00    0.00000000E+00   -2.12450789E+01   -1.00000000E+03   -2.12450789E+01   
                   1.00000000E+01    0.00000000E+00    4.64364675E-02    8.05398729E-02    0.00000000E+00    0.00000000E+00   -1.52049242E+01   -1.00000000E+03   -1.52049242E+01   
                   1.50000000E+01    0.00000000E+00    6.99610712E-02    1.21199030E-01    0.00000000E+00    0.00000000E+00   -1.16526177E+01   -1.00000000E+03   -1.16526177E+01   
                   2.00000000E+01    0.00000000E+00    9.38043306E-02    1.62249803E-01    0.00000000E+00    0.00000000E+00   -9.11550694E+00   -1.00000000E+03   -9.11550694E+00   
                   2.50000000E+01    0.00000000E+00    1.17992547E-01    2.03699805E-01    0.00000000E+00    0.00000000E+00   -7.13523754E+00   -1.00000000E+03   -7.13523754E+00   
                   3.00000000E+01    0.00000000E+00    1.42487247E-01    2.45457268E-01    0.00000000E+00    0.00000000E+00   -5.51082051E+00   -1.00000000E+03   -5.51082051E+00   
                   3.50000000E+01    0.00000000E+00    1.67174125E-01    2.87314348E-01    0.00000000E+00    0.00000000E+00   -4.13808369E+00   -1.00000000E+03   -4.13808369E+00   
                   4.00000000E+01    0.00000000E+00    1.91855977E-01    3.28936666E-01    0.00000000E+00    0.00000000E+00   -2.95765665E+00   -1.00000000E+03   -2.95765665E+00   
                   4.50000000E+01    0.00000000E+00    2.16250727E-01    3.69860767E-01    0.00000000E+00    0.00000000E+00   -1.93376488E+00   -1.00000000E+03   -1.93376488E+00   
                   5.00000000E+01    0.00000000E+00    2.39995521E-01    4.09500941E-01    0.00000000E+00    0.00000000E+00   -1.04418026E+00   -1.00000000E+03   -1.04418026E+00   
                   5.50000000E+01    0.00000000E+00    2.62657551E-01    4.47166364E-01    0.00000000E+00    0.00000000E+00   -2.74914710E-01   -1.00000000E+03   -2.74914710E-01   
                   6.00000000E+01    0.00000000E+00    2.83751758E-01    4.82088738E-01    0.00000000E+00    0.00000000E+00    3.82819569E-01   -1.00000000E+03    3.82819569E-01   
                   6.50000000E+01    0.00000000E+00    3.02764875E-01    5.13459543E-01    0.00000000E+00    0.00000000E+00    9.34463308E-01   -1.00000000E+03    9.34463308E-01   
                   7.00000000E+01    0.00000000E+00    3.19184474E-01    5.40474829E-01    0.00000000E+00    0.00000000E+00    1.38329384E+00   -1.00000000E+03    1.38329384E+00   
                   7.50000000E+01    0.00000000E+00    3.32530933E-01    5.62384353E-01    0.00000000E+00    0.00000000E+00    1.73120555E+00   -1.00000000E+03    1.73120555E+00   
                   8.00000000E+01    0.00000000E+00    3.42389611E-01    5.78540927E-01    0.00000000E+00    0.00000000E+00    1.97923256E+00   -1.00000000E+03    1.97923256E+00   
                   8.50000000E+01    0.00000000E+00    3.48440205E-01    5.88445370E-01    0.00000000E+00    0.00000000E+00    2.12789668E+00   -1.00000000E+03    2.12789668E+00   
                   9.00000000E+01    0.00000000E+00    3.50480314E-01    5.91782564E-01    0.00000000E+00    0.00000000E+00    2.17742905E+00   -1.00000000E+03    2.17742905E+00   
                   9.50000000E+01    0.00000000E+00    3.48440703E-01    5.88444788E-01    0.00000000E+00    0.00000000E+00    2.12789355E+00   -1.00000000E+03    2.12789355E+00   
                   1.00000000E+02    0.00000000E+00    3.42390583E-01    5.78539790E-01    0.00000000E+00    0.00000000E+00    1.97922632E+00   -1.00000000E+03    1.97922632E+00   
                   1.05000000E+02    0.00000000E+00    3.32532334E-01    5.62382712E-01    0.00000000E+00    0.00000000E+00    1.73119625E+00   -1.00000000E+03    1.73119625E+00   
                   1.10000000E+02    0.00000000E+00    3.19186239E-01    5.40472753E-01    0.00000000E+00    0.00000000E+00    1.38328153E+00   -1.00000000E+03    1.38328153E+00   
                   1.15000000E+02    0.00000000E+00    3.02766927E-01    5.13457119E-01    0.00000000E+00    0.00000000E+00    9.34448076E-01   -1.00000000E+03    9.34448076E-01   
                   1.20000000E+02    0.00000000E+00    2.83754012E-01    4.82086062E-01    0.00000000E+00    0.00000000E+00    3.82801519E-01   -1.00000000E+03    3.82801519E-01   
                   1.25000000E+02    0.00000000E+00    2.62659919E-01    4.47163537E-01    0.00000000E+00    0.00000000E+00   -2.74935454E-01   -1.00000000E+03   -2.74935454E-01   
                   1.30000000E+02    0.00000000E+00    2.39997917E-01    4.09498062E-01    0.00000000E+00    0.00000000E+00   -1.04420356E+00   -1.00000000E+03   -1.04420356E+00   
                   1.35000000E+02    0.00000000E+00    2.16253071E-01    3.69857930E-01    0.00000000E+00    0.00000000E+00   -1.93379056E+00   -1.00000000E+03   -1.93379056E+00   
                   1.40000000E+02    0.00000000E+00    1.91858200E-01    3.28933954E-01    0.00000000E+00    0.00000000E+00   -2.95768453E+00   -1.00000000E+03   -2.95768453E+00   
                   1.45000000E+02    0.00000000E+00    1.67176168E-01    2.87311836E-01    0.00000000E+00    0.00000000E+00   -4.13811357E+00   -1.00000000E+03   -4.13811357E+00   
                   1.50000000E+02    0.00000000E+00    1.42489064E-01    2.45455018E-01    0.00000000E+00    0.00000000E+00   -5.51085216E+00   -1.00000000E+03   -5.51085216E+00   
                   1.55000000E+02    0.00000000E+00    1.17994102E-01    2.03697864E-01    0.00000000E+00    0.00000000E+00   -7.13527072E+00   -1.00000000E+03   -7.13527072E+00   
                   1.60000000E+02    0.00000000E+00    9.38055985E-02    1.62248211E-01    0.00000000E+00    0.00000000E+00   -9.11554141E+00   -1.00000000E+03   -9.11554141E+00   
                   1.65000000E+02    0.00000000E+00    6.99620343E-02    1.21197814E-01    0.00000000E+00    0.00000000E+00   -1.16526532E+01   -1.00000000E+03   -1.16526532E+01   
                   1.70000000E+02    0.00000000E+00    4.64371148E-02    8.05390523E-02    0.00000000E+00    0.00000000E+00   -1.52049604E+01   -1.00000000E+03   -1.52049604E+01   
                   1.75000000E+02    0.00000000E+00    2.31537478E-02    4.01862249E-02    0.00000000E+00    0.00000000E+00   -2.12451156E+01   -1.00000000E+03   -2.12451156E+01   
                   1.80000000E+02    0.00000000E+00    3.24614777E-17    5.63547588E-17    0.00000000E+00    0.00000000E+00   -3.18308578E+02   -1.00000000E+03   -3.18308578E+02   
                  -1.80000000E+02    5.00000000E+00   -3.24614777E-17   -5.63547588E-17    0.00000000E+00    0.00000000E+00   -3.18308578E+02   -1.00000000E+03   -3.18308578E+02   
                  -1.75000000E+02    5.00000000E+00   -2.31537552E-02   -4.01862211E-02   -4.33680869E-19    0.00000000E+00   -2.12451155E+01   -3.61828172E+02   -2.12451155E+01   
                  -1.70000000E+02    5.00000000E+00   -4.64371382E-02   -8.05390400E-02    0.00000000E+00    8.67361738E-19   -1.52049603E+01   -3.55807572E+02   -1.52049603E+01   
                  -1.65000000E+02    5.00000000E+00   -6.99620679E-02   -1.21197796E-01    8.67361738E-19    0.00000000E+00   -1.16526531E+01   -3.55807572E+02   -1.16526531E+01   
                  -1.60000000E+02    5.00000000E+00   -9.38056257E-02   -1.62248195E-01   -8.67361738E-19   -1.73472348E-18   -9.11554142E+00   -3.48817872E+02   -9.11554142E+00   
                  -1.55000000E+02    5.00000000E+00   -1.17994107E-01   -2.03697860E-01    1.73472348E-18    0.00000000E+00   -7.13527075E+00   -3.49786973E+02   -7.13527075E+00   
                  -1.50000000E+02    5.00000000E+00   -1.42489045E-01   -2.45455029E-01   -1.73472348E-18    0.00000000E+00   -5.51085217E+00   -3.49786973E+02   -5.51085217E+00   
                  -1.45000000E+02    5.00000000E+00   -1.67176138E-01   -2.87311855E-01    0.00000000E+00    0.00000000E+00   -4.13811354E+00   -1.00000000E+03   -4.13811354E+00   
                  -1.40000000E+02    5.00000000E+00   -1.91858180E-01   -3.28933968E-01   -1.73472348E-18   -3.46944695E-18   -2.95768447E+00   -3.42797272E+02   -2.95768447E+00   
                  -1.35000000E+02    5.00000000E+00   -2.16253081E-01   -3.69857927E-01    1.73472348E-18    3.46944695E-18   -1.93379051E+00   -3.42797272E+02   -1.93379051E+00   
                  -1.30000000E+02    5.00000000E+00   -2.39997960E-01   -4.09498037E-01    0.00000000E+00    0.00000000E+00   -1.04420355E+00   -1.00000000E+03   -1.04420355E+00   
                  -1.25000000E+02    5.00000000E+00   -2.62659989E-01   -4.47163489E-01    0.00000000E+00    0.00000000E+00   -2.74935540E-01   -1.00000000E+03   -2.74935540E-01   
                  -1.20000000E+02    5.00000000E+00   -2.83754099E-01   -4.82085996E-01    1.73472348E-18    0.00000000E+00    3.82801316E-01   -3.49786973E+02    3.82801316E-01   
                  -1.15000000E+02    5.00000000E+00   -3.02767029E-01   -5.13457032E-01   -3.46944695E-18   -3.46944695E-18    9.34447740E-01   -3.40756073E+02    9.34447740E-01   
                  -1.10000000E+02    5.00000000E+00   -3.19186367E-01   -5.40472638E-01    1.73472348E-18    0.00000000E+00    1.38328105E+00   -3.49786973E+02    1.38328105E+00   
                  -1.05000000E+02    5.00000000E+00   -3.32532503E-01   -5.62382558E-01    0.00000000E+00    1.73472348E-18    1.73119563E+00   -3.49786973E+02    1.73119563E+00   
                  -1.00000000E+02    5.00000000E+00   -3.42390802E-01   -5.78539594E-01    0.00000000E+00    0.00000000E+00    1.97922558E+00   -1.00000000E+03    1.97922558E+00   
                  -9.50000000E+01    5.00000000E+00   -3.48440965E-01   -5.88444558E-01    4.33680869E-19    8.67361738E-19    2.12789272E+00   -3.54838472E+02    2.12789272E+00   
                  -9.00000000E+01    5.00000000E+00   -3.50480592E-01   -5.91782321E-01    0.00000000E+00   -3.85185989E-34    2.17742820E+00   -6.62858168E+02    2.17742820E+00   
                  -8.50000000E+01    5.00000000E+00   -3.48440467E-01   -5.88445139E-01    0.00000000E+00    0.00000000E+00    2.12789585E+00   -1.00000000E+03    2.12789585E+00   
                  -8.00000000E+01    5.00000000E+00   -3.42389830E-01   -5.78540730E-01    0.00000000E+00    0.00000000E+00    1.97923182E+00   -1.00000000E+03    1.97923182E+00   
                  -7.50000000E+01    5.00000000E+00   -3.32531102E-01   -5.62384200E-01    8.67361738E-19    0.00000000E+00    1.73120493E+00   -3.55807572E+02    1.73120493E+00   
                  -7.00000000E+01    5.00000000E+00   -3.19184601E-01   -5.40474714E-01    0.00000000E+00    0.00000000E+00    1.38329336E+00   -1.00000000E+03    1.38329336E+00   
                  -6.50000000E+01    5.00000000E+00   -3.02764976E-01   -5.13459456E-01   -1.73472348E-18    3.46944695E-18    9.34462971E-01   -3.42797272E+02    9.34462971E-01   
                  -6.00000000E+01    5.00000000E+00   -2.83751844E-01   -4.82088672E-01    1.73472348E-18    3.46944695E-18    3.82819366E-01   -3.42797272E+02    3.82819366E-01   
                  -5.50000000E+01    5.00000000E+00   -2.62657621E-01   -4.47166317E-01    0.00000000E+00    3.46944695E-18   -2.74914796E-01   -3.43766373E+02   -2.74914796E-01   
                  -5.00000000E+01    5.00000000E+00   -2.39995565E-01   -4.09500916E-01   -1.73472348E-18    0.00000000E+00   -1.04418026E+00   -3.49786973E+02   -1.04418026E+00   
                  -4.50000000E+01    5.00000000E+00   -2.16250737E-01   -3.69860765E-01   -3.46944695E-18    3.46944695E-18   -1.93376483E+00   -3.40756073E+02   -1.93376483E+00   
                  -4.00000000E+01    5.00000000E+00   -1.91855957E-01   -3.28936680E-01    0.00000000E+00    3.46944695E-18   -2.95765659E+00   -3.43766373E+02   -2.95765659E+00   
                  -3.50000000E+01    5.00000000E+00   -1.67174094E-01   -2.87314367E-01    1.73472348E-18   -3.46944695E-18   -4.13808366E+00   -3.42797272E+02   -4.13808366E+00   
                  -3.00000000E+01    5.00000000E+00   -1.42487228E-01   -2.45457279E-01    0.00000000E+00    0.00000000E+00   -5.51082052E+00   -1.00000000E+03   -5.51082052E+00   
                  -2.50000000E+01    5.00000000E+00   -1.17992552E-01   -2.03699801E-01    1.73472348E-18   -3.46944695E-18   -7.13523757E+00   -3.42797272E+02   -7.13523757E+00   
                  -2.00000000E+01    5.00000000E+00   -9.38043578E-02   -1.62249787E-01    0.00000000E+00    0.00000000E+00   -9.11550695E+00   -1.00000000E+03   -9.11550695E+00   
                  -1.50000000E+01    5.00000000E+00   -6.99611048E-02   -1.21199011E-01    8.67361738E-19   -1.73472348E-18   -1.16526176E+01   -3.48817872E+02   -1.16526176E+01   
                  -1.00000000E+01    5.00000000E+00   -4.64364909E-02   -8.05398605E-02   -8.67361738E-19   -8.67361738E-19   -1.52049241E+01   -3.52797272E+02   -1.52049241E+01   
                  -5.00000000E+00    5.00000000E+00   -2.31534302E-02   -4.01866342E-02    4.33680869E-19    4.33680869E-19   -2.12450789E+01   -3.58817872E+02   -2.12450789E+01   
                   0.00000000E+00    5.00000000E+00    0.00000000E+00    0.00000000E+00    0.00000000E+00    0.00000000E+00   -1.00000000E+03   -1.00000000E+03   -1.00000000E+03   
                   5.00000000E+00    5.00000000E+00    2.31534224E-02    4.01866381E-02    0.00000000E+00    0.00000000E+00   -2.12450790E+01   -1.00000000E+03   -2.12450790E+01   
                   1.00000000E+01    5.00000000E+00    4.64364663E-02    8.05398724E-02   -8.67361738E-19   -8.67361738E-19   -1.52049243E+01   -3.52797272E+02   -1.52049243E+01   
                   1.50000000E+01    5.00000000E+00    6.99610697E-02    1.21199028E-01    0.00000000E+00    0.00000000E+00   -1.16526178E+01   -1.00000000E+03   -1.16526178E+01   
                   2.00000000E+01    5.00000000E+00    9.38043301E-02    1.62249800E-01   -8.67361738E-19   -1.73472348E-18   -9.11550708E+00   -3.48817872E+02   -9.11550708E+00   
                   2.50000000E+01    5.00000000E+00    1.17992549E-01    2.03699801E-01   -1.73472348E-18    3.46944695E-18   -7.13523761E+00   -3.42797272E+02   -7.13523761E+00   
                   3.00000000E+01    5.00000000E+00    1.42487251E-01    2.45457267E-01    0.00000000E+00    0.00000000E+00   -5.51082049E+00   -1.00000000E+03   -5.51082049E+00   
                   3.50000000E+01    5.00000000E+00    1.67174130E-01    2.87314350E-01   -1.73472348E-18    0.00000000E+00   -4.13808358E+00   -3.49786973E+02   -4.13808358E+00   
                   4.00000000E+01    5.00000000E+00    1.91855980E-01    3.28936670E-01    0.00000000E+00    0.00000000E+00   -2.95765652E+00   -1.00000000E+03   -2.95765652E+00   
                   4.50000000E+01    5.00000000E+00    2.16250728E-01    3.69860772E-01    1.73472348E-18    0.00000000E+00   -1.93376479E+00   -3.49786973E+02   -1.93376479E+00   
                   5.00000000E+01    5.00000000E+00    2.39995520E-01    4.09500942E-01    0.00000000E+00   -3.46944695E-18   -1.04418026E+00   -3.43766373E+02   -1.04418026E+00   
                   5.50000000E+01    5.00000000E+00    2.62657549E-01    4.47166357E-01    0.00000000E+00    0.00000000E+00   -2.74914826E-01   -1.00000000E+03   -2.74914826E-01   
                   6.00000000E+01    5.00000000E+00    2.83751758E-01    4.82088721E-01    0.00000000E+00    0.00000000E+00    3.82819332E-01   -1.00000000E+03    3.82819332E-01   
                   6.50000000E+01    5.00000000E+00    3.02764876E-01    5.13459514E-01   -1.73472348E-18    0.00000000E+00    9.34462950E-01   -3.49786973E+02    9.34462950E-01   
                   7.00000000E+01    5.00000000E+00    3.19184473E-01    5.40474789E-01    0.00000000E+00    3.46944695E-18    1.38329336E+00   -3.43766373E+02    1.38329336E+00   
                   7.50000000E+01    5.00000000E+00    3.32530928E-01    5.62384303E-01    8.67361738E-19    0.00000000E+00    1.73120494E+00   -3.55807572E+02    1.73120494E+00   
                   8.00000000E+01    5.00000000E+00    3.42389599E-01    5.78540868E-01    0.00000000E+00    1.73472348E-18    1.97923183E+00   -3.49786973E+02    1.97923183E+00   
                   8.50000000E+01    5.00000000E+00    3.48440187E-01    5.88445306E-01    0.00000000E+00    8.67361738E-19    2.12789587E+00   -3.55807572E+02    2.12789587E+00   
                   9.00000000E+01    5.00000000E+00    3.50480294E-01    5.91782499E-01   -3.85185989E-34    3.85185989E-34    2.17742821E+00   -6.59847868E+02    2.17742821E+00   
                   9.50000000E+01    5.00000000E+00    3.48440685E-01    5.88444725E-01    0.00000000E+00    0.00000000E+00    2.12789274E+00   -1.00000000E+03    2.12789274E+00   
                   1.00000000E+02    5.00000000E+00    3.42390571E-01    5.78539732E-01    0.00000000E+00    0.00000000E+00    1.97922560E+00   -1.00000000E+03    1.97922560E+00   
                   1.05000000E+02    5.00000000E+00    3.32532329E-01    5.62382662E-01   -8.67361738E-19    0.00000000E+00    1.73119564E+00   -3.55807572E+02    1.73119564E+00   
                   1.10000000E+02    5.00000000E+00    3.19186239E-01    5.40472713E-01    0.00000000E+00   -3.46944695E-18    1.38328105E+00   -3.43766373E+02    1.38328105E+00   
                   1.15000000E+02    5.00000000E+00    3.02766928E-01    5.13457090E-01    0.00000000E+00    0.00000000E+00    9.34447719E-01   -1.00000000E+03    9.34447719E-01   
                   1.20000000E+02    5.00000000E+00    2.83754012E-01    4.82086045E-01    1.73472348E-18    0.00000000E+00    3.82801282E-01   -3.49786973E+02    3.82801282E-01   
                   1.25000000E+02    5.00000000E+00    2.62659917E-01    4.47163529E-01    0.00000000E+00    0.00000000E+00   -2.74935570E-01   -1.00000000E+03   -2.74935570E-01   
                   1.30000000E+02    5.00000000E+00    2.39997915E-01    4.09498063E-01    0.00000000E+00    3.46944695E-18   -1.04420356E+00   -3.43766373E+02   -1.04420356E+00   
                   1.35000000E+02    5.00000000E+00    2.16253072E-01    3.69857934E-01   -1.73472348E-18    0.00000000E+00   -1.93379047E+00   -3.49786973E+02   -1.93379047E+00   
                   1.40000000E+02    5.00000000E+00    1.91858203E-01    3.28933959E-01    3.46944695E-18    6.93889390E-18   -2.95768440E+00   -3.36776673E+02   -2.95768440E+00   
                   1.45000000E+02    5.00000000E+00    1.67176173E-01    2.87311838E-01   -1.73472348E-18    0.00000000E+00   -4.13811346E+00   -3.49786973E+02   -4.13811346E+00   
                   1.50000000E+02    5.00000000E+00    1.42489068E-01    2.45455016E-01    1.73472348E-18   -3.46944695E-18   -5.51085214E+00   -3.42797272E+02   -5.51085214E+00   
                   1.55000000E+02    5.00000000E+00    1.17994104E-01    2.03697861E-01   -1.73472348E-18    0.00000000E+00   -7.13527079E+00   -3.49786973E+02   -7.13527079E+00   
                   1.60000000E+02    5.00000000E+00    9.38055980E-02    1.62248208E-01    8.67361738E-19    1.73472348E-18   -9.11554154E+00   -3.48817872E+02   -9.11554154E+00   
                   1.65000000E+02    5.00000000E+00    6.99620328E-02    1.21197812E-01    0.00000000E+00    0.00000000E+00   -1.16526533E+01   -1.00000000E+03   -1.16526533E+01   
                   1.70000000E+02    5.00000000E+00    4.64371136E-02    8.05390519E-02   -8.67361738E-19    0.00000000E+00   -1.52049605E+01   -3.55807572E+02   -1.52049605E+01   
                   1.75000000E+02    5.00000000E+00    2.31537474E-02    4.01862249E-02    4.33680869E-19    0.00000000E+00   -2.12451156E+01   -3.61828172E+02   -2.12451156E+01   
                   1.80000000E+02    5.00000000E+00    3.24614777E-17    5.63547588E-17    0.00000000E+00    0.00000000E+00   -3.18308578E+02   -1.00000000E+03   -3.18308578E+02   
                  -1.80000000E+02    1.00000000E+01   -3.24614777E-17   -5.63547588E-17   -7.70371978E-34    0.00000000E+00   -3.18308578E+02   -6.56837568E+02   -3.18308578E+02   
                  -1.75000000E+02    1.00000000E+01   -2.31537554E-02   -4.01862209E-02    0.00000000E+00    0.00000000E+00   -2.12451155E+01   -1.00000000E+03   -2.12451155E+01   
                  -1.70000000E+02    1.00000000E+01   -4.64371383E-02   -8.05390389E-02    0.00000000E+00    0.00000000E+00   -1.52049604E+01   -1.00000000E+03   -1.52049604E+01   
                  -1.65000000E+02    1.00000000E+01   -6.99620671E-02   -1.21197794E-01    0.00000000E+00    0.00000000E+00   -1.16526532E+01   -1.00000000E+03   -1.16526532E+01   
                  -1.60000000E+02    1.00000000E+01   -9.38056232E-02   -1.62248193E-01    0.00000000E+00   -3.46944695E-18   -9.11554153E+00   -3.43766373E+02   -9.11554153E+00   
                  -1.55000000E+02    1.00000000E+01   -1.17994104E-01   -2.03697861E-01    3.46944695E-18    6.93889390E-18   -7.13527080E+00   -3.36776673E+02   -7.13527080E+00   
                  -1.50000000E+02    1.00000000E+01   -1.42489041E-01   -2.45455032E-01    0.00000000E+00    0.00000000E+00   -5.51085213E+00   -1.00000000E+03   -5.51085213E+00   
                  -1.45000000E+02    1.00000000E+01   -1.67176137E-01   -2.87311861E-01   -3.46944695E-18   -6.93889390E-18   -4.13811342E+00   -3.36776673E+02   -4.13811342E+00   
                  -1.40000000E+02    1.00000000E+01   -1.91858181E-01   -3.28933974E-01    0.00000000E+00    0.00000000E+00   -2.95768434E+00   -1.00000000E+03   -2.95768434E+00   
                  -1.35000000E+02    1.00000000E+01   -2.16253081E-01   -3.69857930E-01   -3.46944695E-18    0.00000000E+00   -1.93379045E+00   -3.43766373E+02   -1.93379045E+00   
                  -1.30000000E+02    1.00000000E+01   -2.39997954E-01   -4.09498035E-01    0.00000000E+00   -6.93889390E-18   -1.04420364E+00   -3.37745773E+02   -1.04420364E+00   
                  -1.25000000E+02    1.00000000E+01   -2.62659968E-01   -4.47163483E-01    6.93889390E-18    6.93889390E-18   -2.74935813E-01   -3.34735473E+02   -2.74935813E-01   
                  -1.20000000E+02    1.00000000E+01   -2.83754057E-01   -4.82085985E-01    0.00000000E+00    0.00000000E+00    3.82800841E-01   -1.00000000E+03    3.82800841E-01   
                  -1.15000000E+02    1.00000000E+01   -3.02766963E-01   -5.13457017E-01    6.93889390E-18    6.93889390E-18    9.34447058E-01   -3.34735473E+02    9.34447058E-01   
                  -1.10000000E+02    1.00000000E+01   -3.19186275E-01   -5.40472617E-01    0.00000000E+00    0.00000000E+00    1.38328016E+00   -1.00000000E+03    1.38328016E+00   