##File Type: Far field
##File Format: 5
##Source: dipole
##Date: 2019-03-18 11:10:03
** File exported by POSTFEKO version 2018-319328 (x64)

#Configuration Name: StandardConfiguration1
#Request Name: FarField1
#Frequency: 8.66000000E+08
#Coordinate System: Spherical
#No. of Theta Samples: 73
#No. of Phi Samples: 37
#Result Type: Gain
#No. of Header Lines: 1
                 "Theta"           "Phi"             "Re(Etheta)"      "Im(Etheta)"      "Re(Ephi)"        "Im(Ephi)"        "Gain(Theta)"     "Gain(Phi)"       "Gain(Total)"     
                  -1.80000000E+02    0.00000000E+00    0.00000000E+00    0.00000000E+00    3.50480038E-01    5.91782190E-01   -1.00000000E+03    2.17742321E+00    2.17742321E+00   
                  -1.75000000E+02    0.00000000E+00    0.00000000E+00    0.00000000E+00    3.50480157E-01    5.91782240E-01   -1.00000000E+03    2.17742451E+00    2.17742451E+00   
                  -1.70000000E+02    0.00000000E+00    0.00000000E+00    0.00000000E+00    3.50480353E-01    5.91782290E-01   -1.00000000E+03    2.17742632E+00    2.17742632E+00   
                  -1.65000000E+02    0.00000000E+00    0.00000000E+00    0.00000000E+00    3.50480544E-01    5.91782322E-01   -1.00000000E+03    2.17742789E+00    2.17742789E+00   
                  -1.60000000E+02    0.00000000E+00    0.00000000E+00    0.00000000E+00    3.50480656E-01    5.91782329E-01   -1.00000000E+03    2.17742869E+00    2.17742869E+00   
                  -1.55000000E+02    0.00000000E+00    0.00000000E+00    0.00000000E+00    3.50480647E-01    5.91782320E-01   -1.00000000E+03    2.17742854E+00    2.17742854E+00   
                  -1.50000000E+02    0.00000000E+00    0.00000000E+00    0.00000000E+00    3.50480529E-01    5.91782307E-01   -1.00000000E+03    2.17742764E+00    2.17742764E+00   
                  -1.45000000E+02    0.00000000E+00    0.00000000E+00    0.00000000E+00    3.50480362E-01    5.91782298E-01   -1.00000000E+03    2.17742646E+00    2.17742646E+00   
                  -1.40000000E+02    0.00000000E+00    0.00000000E+00    0.00000000E+00    3.50480220E-01    5.91782295E-01   -1.00000000E+03    2.17742552E+00    2.17742552E+00   
                  -1.35000000E+02    0.00000000E+00    0.00000000E+00    0.00000000E+00    3.50480166E-01    5.91782297E-01   -1.00000000E+03    2.17742519E+00    2.17742519E+00   
                  -1.30000000E+02    0.00000000E+00    0.00000000E+00    0.00000000E+00    3.50480216E-01    5.91782300E-01   -1.00000000E+03    2.17742555E+00    2.17742555E+00   
                  -1.25000000E+02    0.00000000E+00    0.00000000E+00    0.00000000E+00    3.50480340E-01    5.91782306E-01   -1.00000000E+03    2.17742641E+00    2.17742641E+00   
                  -1.20000000E+02    0.00000000E+00    0.00000000E+00    0.00000000E+00    3.50480476E-01    5.91782312E-01   -1.00000000E+03    2.17742735E+00    2.17742735E+00   
                  -1.15000000E+02    0.00000000E+00    0.00000000E+00    0.00000000E+00    3.50480560E-01    5.91782317E-01   -1.00000000E+03    2.17742794E+00    2.17742794E+00   
                  -1.10000000E+02    0.00000000E+00    0.00000000E+00    0.00000000E+00    3.50480556E-01    5.91782314E-01   -1.00000000E+03    2.17742789E+00    2.17742789E+00   
                  -1.05000000E+02    0.00000000E+00    0.00000000E+00    0.00000000E+00    3.50480473E-01    5.91782300E-01   -1.00000000E+03    2.17742720E+00    2.17742720E+00   
                  -1.00000000E+02    0.00000000E+00    0.00000000E+00    0.00000000E+00    3.50480357E-01    5.91782276E-01   -1.00000000E+03    2.17742620E+00    2.17742620E+00   
                  -9.50000000E+01    0.00000000E+00    0.00000000E+00    0.00000000E+00    3.50480268E-01    5.91782255E-01   -1.00000000E+03    2.17742539E+00    2.17742539E+00   
                  -9.00000000E+01    0.00000000E+00    0.00000000E+00    0.00000000E+00    3.50480249E-01    5.91782252E-01   -1.00000000E+03    2.17742524E+00    2.17742524E+00   
                  -8.50000000E+01    0.00000000E+00    0.00000000E+00    0.00000000E+00    3.50480304E-01    5.91782279E-01   -1.00000000E+03    2.17742589E+00    2.17742589E+00   
                  -8.00000000E+01    0.00000000E+00    0.00000000E+00    0.00000000E+00    3.50480400E-01    5.91782332E-01   -1.00000000E+03    2.17742708E+00    2.17742708E+00   
                  -7.50000000E+01    0.00000000E+00    0.00000000E+00    0.00000000E+00    3.50480485E-01    5.91782388E-01   -1.00000000E+03    2.17742823E+00    2.17742823E+00   
                  -7.00000000E+01    0.00000000E+00    0.00000000E+00    0.00000000E+00    3.50480515E-01    5.91782413E-01   -1.00000000E+03    2.17742870E+00    2.17742870E+00   
                  -6.50000000E+01    0.00000000E+00    0.00000000E+00    0.00000000E+00    3.50480481E-01    5.91782386E-01   -1.00000000E+03    2.17742819E+00    2.17742819E+00   
                  -6.00000000E+01    0.00000000E+00    0.00000000E+00    0.00000000E+00    3.50480405E-01    5.91782309E-01   -1.00000000E+03    2.17742687E+00    2.17742687E+00   
                  -5.50000000E+01    0.00000000E+00    0.00000000E+00    0.00000000E+00    3.50480331E-01    5.91782216E-01   -1.00000000E+03    2.17742538E+00    2.17742538E+00   
                  -5.00000000E+01    0.00000000E+00    0.00000000E+00    0.00000000E+00    3.50480294E-01    5.91782157E-01   -1.00000000E+03    2.17742449E+00    2.17742449E+00   
                  -4.50000000E+01    0.00000000E+00    0.00000000E+00    0.00000000E+00    3.50480304E-01    5.91782169E-01   -1.00000000E+03    2.17742469E+00    2.17742469E+00   
                  -4.00000000E+01    0.00000000E+00    0.00000000E+00    0.00000000E+00    3.50480345E-01    5.91782259E-01   -1.00000000E+03    2.17742593E+00    2.17742593E+00   
                  -3.50000000E+01    0.00000000E+00    0.00000000E+00    0.00000000E+00    3.50480387E-01    5.91782386E-01   -1.00000000E+03    2.17742758E+00    2.17742758E+00   
                  -3.00000000E+01    0.00000000E+00    0.00000000E+00    0.00000000E+00    3.50480407E-01    5.91782487E-01   -1.00000000E+03    2.17742880E+00    2.17742880E+00   
                  -2.50000000E+01    0.00000000E+00    0.00000000E+00    0.00000000E+00    3.50480404E-01    5.91782501E-01   -1.00000000E+03    2.17742894E+00    2.17742894E+00   
                  -2.00000000E+01    0.00000000E+00    0.00000000E+00    0.00000000E+00    3.50480393E-01    5.91782407E-01   -1.00000000E+03    2.17742784E+00    2.17742784E+00   
                  -1.50000000E+01    0.00000000E+00    0.00000000E+00    0.00000000E+00    3.50480394E-01    5.91782235E-01   -1.00000000E+03    2.17742598E+00    2.17742598E+00   
                  -1.00000000E+01    0.00000000E+00    0.00000000E+00    0.00000000E+00    3.50480413E-01    5.91782055E-01   -1.00000000E+03    2.17742415E+00    2.17742415E+00   
                  -5.00000000E+00    0.00000000E+00    0.00000000E+00    0.00000000E+00    3.50480440E-01    5.91781945E-01   -1.00000000E+03    2.17742313E+00    2.17742313E+00   
                   0.00000000E+00    0.00000000E+00    0.00000000E+00    0.00000000E+00    3.50480451E-01    5.91781953E-01   -1.00000000E+03    2.17742329E+00    2.17742329E+00   
                   5.00000000E+00    0.00000000E+00    0.00000000E+00    0.00000000E+00    3.50480428E-01    5.91782079E-01   -1.00000000E+03    2.17742450E+00    2.17742450E+00   
                   1.00000000E+01    0.00000000E+00    0.00000000E+00    0.00000000E+00    3.50480371E-01    5.91782270E-01   -1.00000000E+03    2.17742622E+00    2.17742622E+00   
                   1.50000000E+01    0.00000000E+00    0.00000000E+00    0.00000000E+00    3.50480304E-01    5.91782451E-01   -1.00000000E+03    2.17742775E+00    2.17742775E+00   
                   2.00000000E+01    0.00000000E+00    0.00000000E+00    0.00000000E+00    3.50480259E-01    5.91782552E-01   -1.00000000E+03    2.17742856E+00    2.17742856E+00   
                   2.50000000E+01    0.00000000E+00    0.00000000E+00    0.00000000E+00    3.50480260E-01    5.91782542E-01   -1.00000000E+03    2.17742846E+00    2.17742846E+00   
                   3.00000000E+01    0.00000000E+00    0.00000000E+00    0.00000000E+00    3.50480311E-01    5.91782436E-01   -1.00000000E+03    2.17742763E+00    2.17742763E+00   
                   3.50000000E+01    0.00000000E+00    0.00000000E+00    0.00000000E+00    3.50480387E-01    5.91782287E-01   -1.00000000E+03    2.17742651E+00    2.17742651E+00   
                   4.00000000E+01    0.00000000E+00    0.00000000E+00    0.00000000E+00    3.50480453E-01    5.91782163E-01   -1.00000000E+03    2.17742559E+00    2.17742559E+00   
                   4.50000000E+01    0.00000000E+00    0.00000000E+00    0.00000000E+00    3.50480479E-01    5.91782116E-01   -1.00000000E+03    2.17742523E+00    2.17742523E+00   
                   5.00000000E+01    0.00000000E+00    0.00000000E+00    0.00000000E+00    3.50480455E-01    5.91782159E-01   -1.00000000E+03    2.17742555E+00    2.17742555E+00   
                   5.50000000E+01    0.00000000E+00    0.00000000E+00    0.00000000E+00    3.50480396E-01    5.91782268E-01   -1.00000000E+03    2.17742636E+00    2.17742636E+00   
                   6.00000000E+01    0.00000000E+00    0.00000000E+00    0.00000000E+00    3.50480335E-01    5.91782389E-01   -1.00000000E+03    2.17742728E+00    2.17742728E+00   
                   6.50000000E+01    0.00000000E+00    0.00000000E+00    0.00000000E+00    3.50480300E-01    5.91782464E-01   -1.00000000E+03    2.17742787E+00    2.17742787E+00   
                   7.00000000E+01    0.00000000E+00    0.00000000E+00    0.00000000E+00    3.50480301E-01    5.91782460E-01   -1.00000000E+03    2.17742784E+00    2.17742784E+00   
                   7.50000000E+01    0.00000000E+00    0.00000000E+00    0.00000000E+00    3.50480331E-01    5.91782382E-01   -1.00000000E+03    2.17742717E+00    2.17742717E+00   
                   8.00000000E+01    0.00000000E+00    0.00000000E+00    0.00000000E+00    3.50480366E-01    5.91782270E-01   -1.00000000E+03    2.17742618E+00    2.17742618E+00   
                   8.50000000E+01    0.00000000E+00    0.00000000E+00    0.00000000E+00    3.50480388E-01    5.91782182E-01   -1.00000000E+03    2.17742537E+00    2.17742537E+00   
                   9.00000000E+01    0.00000000E+00    0.00000000E+00    0.00000000E+00    3.50480392E-01    5.91782164E-01   -1.00000000E+03    2.17742520E+00    2.17742520E+00   
                   9.50000000E+01    0.00000000E+00    0.00000000E+00    0.00000000E+00    3.50480387E-01    5.91782226E-01   -1.00000000E+03    2.17742585E+00    2.17742585E+00   
                   1.00000000E+02    0.00000000E+00    0.00000000E+00    0.00000000E+00    3.50480386E-01    5.91782337E-01   -1.00000000E+03    2.17742704E+00    2.17742704E+00   
                   1.05000000E+02    0.00000000E+00    0.00000000E+00    0.00000000E+00    3.50480395E-01    5.91782438E-01   -1.00000000E+03    2.17742820E+00    2.17742820E+00   
                   1.10000000E+02    0.00000000E+00    0.00000000E+00    0.00000000E+00    3.50480407E-01    5.91782477E-01   -1.00000000E+03    2.17742869E+00    2.17742869E+00   
                   1.15000000E+02    0.00000000E+00    0.00000000E+00    0.00000000E+00    3.50480404E-01    5.91782432E-01   -1.00000000E+03    2.17742819E+00    2.17742819E+00   
                   1.20000000E+02    0.00000000E+00    0.00000000E+00    0.00000000E+00    3.50480375E-01    5.91782327E-01   -1.00000000E+03    2.17742686E+00    2.17742686E+00   
                   1.25000000E+02    0.00000000E+00    0.00000000E+00    0.00000000E+00    3.50480328E-01    5.91782217E-01   -1.00000000E+03    2.17742537E+00    2.17742537E+00   
                   1.30000000E+02    0.00000000E+00    0.00000000E+00    0.00000000E+00    3.50480291E-01    5.91782157E-01   -1.00000000E+03    2.17742447E+00    2.17742447E+00   
                   1.35000000E+02    0.00000000E+00    0.00000000E+00    0.00000000E+00    3.50480294E-01    5.91782175E-01   -1.00000000E+03    2.17742469E+00    2.17742469E+00   
                   1.40000000E+02    0.00000000E+00    0.00000000E+00    0.00000000E+00    3.50480350E-01    5.91782257E-01   -1.00000000E+03    2.17742594E+00    2.17742594E+00   
                   1.45000000E+02    0.00000000E+00    0.00000000E+00    0.00000000E+00    3.50480443E-01    5.91782356E-01   -1.00000000E+03    2.17742762E+00    2.17742762E+00   
                   1.50000000E+02    0.00000000E+00    0.00000000E+00    0.00000000E+00    3.50480526E-01    5.91782419E-01   -1.00000000E+03    2.17742884E+00    2.17742884E+00   
                   1.55000000E+02    0.00000000E+00    0.00000000E+00    0.00000000E+00    3.50480545E-01    5.91782417E-01   -1.00000000E+03    2.17742893E+00    2.17742893E+00   
                   1.60000000E+02    0.00000000E+00    0.00000000E+00    0.00000000E+00    3.50480471E-01    5.91782354E-01   -1.00000000E+03    2.17742778E+00    2.17742778E+00   
                   1.65000000E+02    0.00000000E+00    0.00000000E+00    0.00000000E+00    3.50480321E-01    5.91782266E-01   -1.00000000E+03    2.17742585E+00    2.17742585E+00   
                   1.70000000E+02    0.00000000E+00    0.00000000E+00    0.00000000E+00    3.50480152E-01    5.91782194E-01   -1.00000000E+03    2.17742399E+00    2.17742399E+00   
                   1.75000000E+02    0.00000000E+00    0.00000000E+00    0.00000000E+00    3.50480039E-01    5.91782168E-01   -1.00000000E+03    2.17742298E+00    2.17742298E+00   
                   1.80000000E+02    0.00000000E+00    0.00000000E+00    0.00000000E+00    3.50480038E-01    5.91782190E-01   -1.00000000E+03    2.17742321E+00    2.17742321E+00   
                  -1.80000000E+02    5.00000000E+00   -3.05463480E-02   -5.15772163E-02    3.49146356E-01    5.89530280E-01   -1.90166566E+01    2.14430773E+00    2.17742321E+00   
                  -1.75000000E+02    5.00000000E+00   -3.04296506E-02   -5.13802368E-02    3.49141085E-01    5.89522103E-01   -1.90498953E+01    2.14418448E+00    2.17704936E+00   
                  -1.70000000E+02    5.00000000E+00   -3.00804676E-02   -5.07908333E-02    3.49125316E-01    5.89497675E-01   -1.91501190E+01    2.14381616E+00    2.17593677E+00   
                  -1.65000000E+02    5.00000000E+00   -2.95015433E-02   -4.98136336E-02    3.49099458E-01    5.89457722E-01   -1.93188755E+01    2.14321326E+00    2.17411830E+00   
                  -1.60000000E+02    5.00000000E+00   -2.86974258E-02   -4.84563031E-02    3.49064227E-01    5.89403457E-01   -1.95588544E+01    2.14239362E+00    2.17164834E+00   
                  -1.55000000E+02    5.00000000E+00   -2.76744261E-02   -4.67294707E-02    3.49020656E-01    5.89336539E-01   -1.98740682E+01    2.14138195E+00    2.16860129E+00   
                  -1.50000000E+02    5.00000000E+00   -2.64405577E-02   -4.46466267E-02    3.48970084E-01    5.89259017E-01   -2.02701425E+01    2.14020920E+00    2.16506945E+00   
                  -1.45000000E+02    5.00000000E+00   -2.50054587E-02   -4.22239956E-02    3.48914103E-01    5.89173257E-01   -2.07547626E+01    2.13891140E+00    2.16116007E+00   
                  -1.40000000E+02    5.00000000E+00   -2.33802989E-02   -3.94803873E-02    3.48854485E-01    5.89081869E-01   -2.13383565E+01    2.13752847E+00    2.15699203E+00   
                  -1.35000000E+02    5.00000000E+00   -2.15776760E-02   -3.64370290E-02    3.48793098E-01    5.88987629E-01   -2.20351616E+01    2.13610276E+00    2.15269206E+00   
                  -1.30000000E+02    5.00000000E+00   -1.96115021E-02   -3.31173797E-02    3.48731823E-01    5.88893402E-01   -2.28649368E+01    2.13467766E+00    2.14839080E+00   
                  -1.25000000E+02    5.00000000E+00   -1.74968863E-02   -2.95469322E-02    3.48672492E-01    5.88802049E-01   -2.38558420E+01    2.13329629E+00    2.14421885E+00   
                  -1.20000000E+02    5.00000000E+00   -1.52500111E-02   -2.57530031E-02    3.48616848E-01    5.88716345E-01   -2.50495640E+01    2.13200027E+00    2.14030284E+00   
                  -1.15000000E+02    5.00000000E+00   -1.28880056E-02   -2.17645149E-02    3.48566522E-01    5.88638889E-01   -2.65111706E+01    2.13082856E+00    2.13676174E+00   
                  -1.10000000E+02    5.00000000E+00   -1.04288140E-02   -1.76117732E-02    3.48523008E-01    5.88572027E-01   -2.83501141E+01    2.12981652E+00    2.13370336E+00   
                  -1.05000000E+02    5.00000000E+00   -7.89106073E-03   -1.33262391E-02    3.48487635E-01    5.88517782E-01   -3.07720448E+01    2.12899492E+00    2.13122115E+00   
                  -1.00000000E+02    5.00000000E+00   -5.29391347E-03   -8.94030011E-03    3.48461520E-01    5.88477802E-01   -3.42391707E+01    2.12838904E+00    2.12939130E+00   
                  -9.50000000E+01    5.00000000E+00   -2.65694560E-03   -4.48703855E-03    3.48445510E-01    5.88453310E-01   -4.02270264E+01    2.12801778E+00    2.12827029E+00   
                  -9.00000000E+01    5.00000000E+00    1.86664102E-18    3.15238000E-18    3.48440130E-01    5.88445066E-01   -3.43293454E+02    2.12789287E+00    2.12789287E+00   
                  -8.50000000E+01    5.00000000E+00    2.65694590E-03    4.48703871E-03    3.48445548E-01    5.88453331E-01   -4.02270259E+01    2.12801826E+00    2.12827076E+00   
                  -8.00000000E+01    5.00000000E+00    5.29391420E-03    8.94030086E-03    3.48461567E-01    5.88477851E-01   -3.42391699E+01    2.12838989E+00    2.12939215E+00   
                  -7.50000000E+01    5.00000000E+00    7.89106111E-03    1.33262410E-02    3.48487652E-01    5.88517863E-01   -3.07720438E+01    2.12899591E+00    2.13122214E+00   
                  -7.00000000E+01    5.00000000E+00    1.04288129E-02    1.76117760E-02    3.48522971E-01    5.88572120E-01   -2.83501134E+01    2.12981730E+00    2.13370415E+00   
                  -6.50000000E+01    5.00000000E+00    1.28880027E-02    2.17645174E-02    3.48566445E-01    5.88638955E-01   -2.65111704E+01    2.13082878E+00    2.13676196E+00   
                  -6.00000000E+01    5.00000000E+00    1.52500079E-02    2.57530030E-02    3.48616777E-01    5.88716341E-01   -2.50495645E+01    2.13199977E+00    2.14030234E+00   
                  -5.50000000E+01    5.00000000E+00    1.74968857E-02    2.95469278E-02    3.48672480E-01    5.88801961E-01   -2.38558431E+01    2.13329525E+00    2.14421781E+00   
                  -5.00000000E+01    5.00000000E+00    1.96115063E-02    3.31173717E-02    3.48731897E-01    5.88893260E-01   -2.28649378E+01    2.13467659E+00    2.14838973E+00   
                  -4.50000000E+01    5.00000000E+00    2.15776843E-02    3.64370212E-02    3.48793234E-01    5.88987504E-01   -2.20351621E+01    2.13610226E+00    2.15269156E+00   
                  -4.00000000E+01    5.00000000E+00    2.33803072E-02    3.94803849E-02    3.48854609E-01    5.89081832E-01   -2.13383561E+01    2.13752888E+00    2.15699244E+00   
                  -3.50000000E+01    5.00000000E+00    2.50054605E-02    4.22240018E-02    3.48914129E-01    5.89173344E-01   -2.07547614E+01    2.13891253E+00    2.16116119E+00   
                  -3.00000000E+01    5.00000000E+00    2.64405487E-02    4.46466402E-02    3.48969964E-01    5.89259195E-01   -2.02701414E+01    2.14021037E+00    2.16507062E+00   
                  -2.50000000E+01    5.00000000E+00    2.76744072E-02    4.67294849E-02    3.49020417E-01    5.89336718E-01   -1.98740678E+01    2.14138236E+00    2.16860170E+00   
                  -2.00000000E+01    5.00000000E+00    2.86974045E-02    4.84563095E-02    3.49063967E-01    5.89403534E-01   -1.95588552E+01    2.14239278E+00    2.17164750E+00   
                  -1.50000000E+01    5.00000000E+00    2.95015308E-02    4.98136263E-02    3.49099310E-01    5.89457636E-01   -1.93188774E+01    2.14321136E+00    2.17411640E+00   
                  -1.00000000E+01    5.00000000E+00    3.00804730E-02    5.07908131E-02    3.49125378E-01    5.89497441E-01   -1.91501212E+01    2.14381400E+00    2.17593461E+00   
                  -5.00000000E+00    5.00000000E+00    3.04296751E-02    5.13802112E-02    3.49141367E-01    5.89521810E-01   -1.90498967E+01    2.14418310E+00    2.17704798E+00   
                   0.00000000E+00    5.00000000E+00    3.05463840E-02    5.15771957E-02    3.49146767E-01    5.89530044E-01   -1.90166565E+01    2.14430781E+00    2.17742329E+00   
                   5.00000000E+00    5.00000000E+00    3.04296779E-02    5.13802184E-02    3.49141398E-01    5.89521892E-01   -1.90498956E+01    2.14418420E+00    2.17704908E+00   
                   1.00000000E+01    5.00000000E+00    3.00804768E-02    5.07908228E-02    3.49125423E-01    5.89497553E-01   -1.91501197E+01    2.14381552E+00    2.17593613E+00   
                   1.50000000E+01    5.00000000E+00    2.95015342E-02    4.98136316E-02    3.49099351E-01    5.89457699E-01   -1.93188765E+01    2.14321231E+00    2.17411735E+00   
                   2.00000000E+01    5.00000000E+00    2.86974076E-02    4.84563049E-02    3.49064005E-01    5.89403478E-01   -1.95588556E+01    2.14239241E+00    2.17164713E+00   
                   2.50000000E+01    5.00000000E+00    2.76744126E-02    4.67294686E-02    3.49020485E-01    5.89336512E-01   -1.98740696E+01    2.14138055E+00    2.16859989E+00   
                   3.00000000E+01    5.00000000E+00    2.64405603E-02    4.46466142E-02    3.48970118E-01    5.89258853E-01   -2.02701441E+01    2.14020762E+00    2.16506788E+00   
                   3.50000000E+01    5.00000000E+00    2.50054810E-02    4.22239709E-02    3.48914414E-01    5.89172912E-01   -2.07547643E+01    2.13890966E+00    2.16115833E+00   
                   4.00000000E+01    5.00000000E+00    2.33803358E-02    3.94803536E-02    3.48855035E-01    5.89081365E-01   -2.13383585E+01    2.13752653E+00    2.15699009E+00   
                   4.50000000E+01    5.00000000E+00    2.15777168E-02    3.64369925E-02    3.48793758E-01    5.88987040E-01   -2.20351637E+01    2.13610059E+00    2.15268990E+00   
                   5.00000000E+01    5.00000000E+00    1.96115367E-02    3.31173469E-02    3.48732439E-01    5.88892818E-01   -2.28649392E+01    2.13467526E+00    2.14838841E+00   
                   5.50000000E+01    5.00000000E+00    1.74969095E-02    2.95469065E-02    3.48672955E-01    5.88801536E-01   -2.38558446E+01    2.13329368E+00    2.14421624E+00   
                   6.00000000E+01    5.00000000E+00    1.52500239E-02    2.57529844E-02    3.48617142E-01    5.88715917E-01   -2.50495668E+01    2.13199749E+00    2.14030006E+00   
                   6.50000000E+01    5.00000000E+00    1.28880129E-02    2.17645008E-02    3.48566721E-01    5.88638506E-01   -2.65111735E+01    2.13082566E+00    2.13675884E+00   
                   7.00000000E+01    5.00000000E+00    1.04288207E-02    1.76117611E-02    3.48523233E-01    5.88571621E-01   -2.83501171E+01    2.12981354E+00    2.13370038E+00   
                   7.50000000E+01    5.00000000E+00    7.89106871E-03    1.33262281E-02    3.48487987E-01    5.88517295E-01   -3.07720479E+01    2.12899189E+00    2.13121811E+00   
                   8.00000000E+01    5.00000000E+00    5.29392125E-03    8.94029122E-03    3.48462031E-01    5.88477217E-01   -3.42391738E+01    2.12838596E+00    2.12938821E+00   
                   8.50000000E+01    5.00000000E+00    2.65695037E-03    4.48703355E-03    3.48446136E-01    5.88452654E-01   -4.02270295E+01    2.12801466E+00    2.12826716E+00   
                   9.00000000E+01    5.00000000E+00    1.86664449E-18    3.15237641E-18    3.48440777E-01    5.88444394E-01   -3.43293458E+02    2.12788972E+00    2.12788972E+00   
                   9.50000000E+01    5.00000000E+00   -2.65695033E-03   -4.48703388E-03    3.48446129E-01    5.88452698E-01   -4.02270291E+01    2.12801511E+00    2.12826761E+00   
                   1.00000000E+02    5.00000000E+00   -5.29392143E-03   -8.94029224E-03    3.48462044E-01    5.88477284E-01   -3.42391730E+01    2.12838677E+00    2.12938902E+00   
                   1.05000000E+02    5.00000000E+00   -7.89106998E-03   -1.33262294E-02    3.48488043E-01    5.88517351E-01   -3.07720469E+01    2.12899286E+00    2.13121909E+00   
                   1.10000000E+02    5.00000000E+00   -1.04288237E-02   -1.76117615E-02    3.48523332E-01    5.88571636E-01   -2.83501163E+01    2.12981435E+00    2.13370119E+00   
                   1.15000000E+02    5.00000000E+00   -1.28880166E-02   -2.17644995E-02    3.48566821E-01    5.88638472E-01   -2.65111732E+01    2.13082595E+00    2.13675913E+00   
                   1.20000000E+02    5.00000000E+00   -1.52500256E-02   -2.57529816E-02    3.48617181E-01    5.88715854E-01   -2.50495672E+01    2.13199706E+00    2.14029963E+00   
                   1.25000000E+02    5.00000000E+00   -1.74969062E-02   -2.95469039E-02    3.48672889E-01    5.88801483E-01   -2.38558456E+01    2.13329268E+00    2.14421524E+00   
                   1.30000000E+02    5.00000000E+00   -1.96115278E-02   -3.31173466E-02    3.48732279E-01    5.88892814E-01   -2.28649402E+01    2.13467418E+00    2.14838733E+00   
                   1.35000000E+02    5.00000000E+00   -2.15777056E-02   -3.64369961E-02    3.48793576E-01    5.88987098E-01   -2.20351643E+01    2.13610004E+00    2.15268935E+00   
                   1.40000000E+02    5.00000000E+00   -2.33803290E-02   -3.94803597E-02    3.48854934E-01    5.89081457E-01   -2.13383581E+01    2.13752688E+00    2.15699044E+00   
                   1.45000000E+02    5.00000000E+00   -2.50054850E-02   -4.22239758E-02    3.48914470E-01    5.89172981E-01   -2.07547632E+01    2.13891076E+00    2.16115943E+00   
                   1.50000000E+02    5.00000000E+00   -2.64405764E-02   -4.46466131E-02    3.48970330E-01    5.89258838E-01   -2.02701429E+01    2.14020883E+00    2.16506909E+00   
                   1.55000000E+02    5.00000000E+00   -2.76744349E-02   -4.67294589E-02    3.49020766E-01    5.89336390E-01   -1.98740691E+01    2.14138103E+00    2.16860037E+00   
                   1.60000000E+02    5.00000000E+00   -2.86974248E-02   -4.84562888E-02    3.49064215E-01    5.89403283E-01   -1.95588564E+01    2.14239164E+00    2.17164636E+00   
                   1.65000000E+02    5.00000000E+00   -2.95015355E-02   -4.98136162E-02    3.49099367E-01    5.89457516E-01   -1.93188784E+01    2.14321042E+00    2.17411546E+00   
                   1.70000000E+02    5.00000000E+00   -3.00804580E-02   -5.07908164E-02    3.49125204E-01    5.89497479E-01   -1.91501219E+01    2.14381329E+00    2.17593390E+00   
                   1.75000000E+02    5.00000000E+00   -3.04296441E-02   -5.13802262E-02    3.49141011E-01    5.89521982E-01   -1.90498972E+01    2.14418268E+00    2.17704756E+00   
                   1.80000000E+02    5.00000000E+00   -3.05463480E-02   -5.15772163E-02    3.49146356E-01    5.89530280E-01   -1.90166566E+01    2.14430773E+00    2.17742321E+00   
                  -1.80000000E+02    1.00000000E+01   -6.08602199E-02   -1.02761899E-01    3.45155459E-01    5.82791689E-01   -1.30291722E+01    2.04445238E+00    2.17742321E+00   
                  -1.75000000E+02    1.00000000E+01   -6.06249411E-02   -1.02365188E-01    3.45134467E-01    5.82759407E-01   -1.30627811E+01    2.04395900E+00    2.17593495E+00   
                  -1.70000000E+02    1.00000000E+01   -5.99211354E-02   -1.01178430E-01    3.45072066E-01    5.82663356E-01   -1.31641042E+01    2.04249121E+00    2.17151144E+00   
                  -1.65000000E+02    1.00000000E+01   -5.87548869E-02   -9.92117922E-02    3.44970093E-01    5.82506460E-01   -1.33346562E+01    2.04009283E+00    2.16428240E+00   
                  -1.60000000E+02    1.00000000E+01   -5.71362384E-02   -9.64820545E-02    3.44831600E-01    5.82293518E-01   -1.35770722E+01    2.03683602E+00    2.15446084E+00   
                  -1.55000000E+02    1.00000000E+01   -5.50790394E-02   -9.30123539E-02    3.44660786E-01    5.82031049E-01   -1.38952910E+01    2.03281933E+00    2.14233742E+00   
                  -1.50000000E+02    1.00000000E+01   -5.26007376E-02   -8.88318458E-02    3.44462882E-01    5.81727083E-01   -1.42948472E+01    2.02816473E+00    2.12827258E+00   
                  -1.45000000E+02    1.00000000E+01   -4.97221209E-02   -8.39752924E-02    3.44243981E-01    5.81390906E-01   -1.47833204E+01    2.02301381E+00    2.11268637E+00   
                  -1.40000000E+02    1.00000000E+01   -4.64670224E-02   -7.84825965E-02    3.44010823E-01    5.81032767E-01   -1.53710219E+01    2.01752333E+00    2.09604648E+00   
                  -1.35000000E+02    1.00000000E+01   -4.28620022E-02   -7.23982976E-02    3.43770559E-01    5.80663571E-01   -1.60720642E+01    2.01186032E+00    2.07885461E+00   
                  -1.30000000E+02    1.00000000E+01   -3.89360223E-02   -6.57710469E-02    3.43530510E-01    5.80294544E-01   -1.69060778E+01    2.00619688E+00    2.06163164E+00   
                  -1.25000000E+02    1.00000000E+01   -3.47201236E-02   -5.86530781E-02    3.43297934E-01    5.79936891E-01   -1.79010936E+01    2.00070498E+00    2.04490198E+00   
                  -1.20000000E+02    1.00000000E+01   -3.02471150E-02   -5.10996877E-02    3.43079827E-01    5.79601459E-01   -1.90986732E+01    1.99555127E+00    2.02917760E+00   
                  -1.15000000E+02    1.00000000E+01   -2.55512793E-02   -4.31687390E-02    3.42882736E-01    5.79298404E-01   -2.05637673E+01    1.99089213E+00    2.01494215E+00   
                  -1.10000000E+02    1.00000000E+01   -2.06680981E-02   -3.49201970E-02    3.42712590E-01    5.79036885E-01   -2.24057218E+01    1.98686913E+00    2.00263568E+00   